/*--------------------------------*- C++ -*----------------------------------*\
| =========                 |                                                 |
| \\      /  F ield         | OpenFOAM: The Open Source CFD Toolbox           |
|  \\    /   O peration     | Version:  2.1.x                                 |
|   \\  /    A nd           | Web:      www.OpenFOAM.org                      |
|    \\/     M anipulation  |                                                 |
\*---------------------------------------------------------------------------*/
FoamFile
{
    version     2.0;
    format      ascii;
    class       volScalarField;
    location    "0";
    object      k;
}
// * * * * * * * * * * * * * * * * * * * * * * * * * * * * * * * * * * * * * //

dimensions      [0 2 -2 0 0 0 0];

internalField   uniform 0.00089318;

boundaryField

{
	upstream
	{ 
        	type            fixedValue;
        	value           uniform 0.00089318;
	}

	downstream
	{ 
	        type            zeroGradient;
	}

	PipeUpDown
	{ 
        	type            kqRWallFunction;
        	value           uniform 0.00089318;
	}

	PipeBaffle
	{ 
        	type            kqRWallFunction;
        	value           uniform 0.00089318;
	}

	baffles
	{ 
        	type            kqRWallFunction;
        	value           uniform 0.00089318;
	}

	wall
	{ 
        	type            kqRWallFunction;
        	value           uniform 0.00089318;
	}

}

