/*--------------------------------*- C++ -*----------------------------------*\
| =========                 |                                                 |
| \\      /  F ield         | OpenFOAM: The Open Source CFD Toolbox           |
|  \\    /   O peration     | Version:  3.0.1                                 |
|   \\  /    A nd           | Web:      www.OpenFOAM.org                      |
|    \\/     M anipulation  |                                                 |
\*---------------------------------------------------------------------------*/

FoamFile
{
    version     2.0;
    format      ascii;
    class       volScalarField;
    location    "0";
    object      nut;
}
// * * * * * * * * * * * * * * * * * * * * * * * * * * * * * * * * * * * * * //

dimensions      [0 2 -1 0 0 0 0];

internalField   uniform 0;

boundaryField
{
    upstream
    {
        type            calculated;
        value           uniform 0;
    }
    downstream
    {
        type            calculated;
        value           uniform 0;
    }
    wall
    {
        type            nutkRoughWallFunction;
	value uniform 0;
	Ks uniform 0.0000015;
	Cs uniform 0.5;
    }

    PipeUpDown
    {
        type            nutkRoughWallFunction;
	value uniform 0;
	Ks uniform 0.0000015;
	Cs uniform 0.5;
    }

    PipeBaffle
    {
        type            nutkRoughWallFunction;
	value uniform 0;
	Ks uniform 0.0000015;
	Cs uniform 0.5;
    }

    baffles
    {
        type            nutkRoughWallFunction;
	value uniform 0;
	Ks uniform 0.0000015;
	Cs uniform 0.5;
    }
}


// ************************************************************************* //
