/*--------------------------------*- C++ -*----------------------------------*\
| =========                 |                                                 |
| \\      /  F ield         | OpenFOAM: The Open Source CFD Toolbox           |
|  \\    /   O peration     | Version:  3.0.1                                 |
|   \\  /    A nd           | Web:      www.OpenFOAM.org                      |
|    \\/     M anipulation  |                                                 |
\*---------------------------------------------------------------------------*/
FoamFile
{
    version     2.0;
    format      ascii;
    class       volScalarField;
    location    "0";
    object      nuTilda;
}
// * * * * * * * * * * * * * * * * * * * * * * * * * * * * * * * * * * * * * //

dimensions      [m^2 s^-1];

internalField   uniform 0;

boundaryField
{
    upstream
    {
        type            zeroGradient;
    }
    downstream
    {
        type            zeroGradient;
    }
    wall
    {
        type            zeroGradient;
    }
    PipeUpDown
    {
        type            zeroGradient;
    }

    PipeBaffle
    {
        type            zeroGradient;
    }

    baffles
    {
        type            zeroGradient;
    }
}


// ************************************************************************* //
