/*--------------------------------*- C++ -*----------------------------------*\
| =========                 |                                                 |
| \\      /  F ield         | OpenFOAM: The Open Source CFD Toolbox           |
|  \\    /   O peration     | Version:  2.1.x                                 |
|   \\  /    A nd           | Web:      www.OpenFOAM.org                      |
|    \\/     M anipulation  |                                                 |
\*---------------------------------------------------------------------------*/
FoamFile
{
    version     2.0;
    format      ascii;
    class       volScalarField;
    location    "0";
    object      epsilon;
}
// * * * * * * * * * * * * * * * * * * * * * * * * * * * * * * * * * * * * * //

dimensions      [0 0 -1 0 0 0 0];

internalField   uniform 3.0963;

boundaryField
{

	upstream
	{ 
	        type            fixedValue;
	        value           uniform 3.0963;
	}
	
	downstream
	{ 
	        type            zeroGradient;
 
	}

	PipeUpDown
	{ 
        type            omegaWallFunction;
	value uniform 3.0963;
	}

	PipeBaffle
	{ 
        type            omegaWallFunction;
	value uniform 3.0963;
	}

	wall
	{ 
        type            omegaWallFunction;
	value uniform 3.0963;
	}

}


// ************************************************************************* //
