// -*- C++ -*-
// File generated by PyFoam - sorry for the ugliness

FoamFile
{
 version 2.0;
 format ascii; 	
 class volVectorField; 	
 location "0"; 	
 object U; 	
}

dimensions [ 0 1 -1 0 0 0 0 ];

internalField uniform (0.690723 0 0); 	

boundaryField
{

	upstream
	{ 
        	type            fixedValue;
        	value           uniform (0.690733 0 0); //equals 0.035 m^3/s
	}

	downstream
	{ 
        	type            zeroGradient;
	}

	PipeUpDown
	{ 
		type fixedValue;
                value uniform (0 0 0);
	}

	PipeBaffle
	{ 
		type fixedValue;
                value uniform (0 0 0);
	}

	baffles
	{ 
		type fixedValue;
                value uniform (0 0 0);
	}

	wall
	{ 
		type fixedValue;
                value uniform (0 0 0);
	}


}
// ************************************************************************* //
